# ODT 1.0
# Table Start
# Title: mmArchive Data Table, Wed Jun 05 18:04:18 BST 2024
# Columns: {Oxs_CGEvolve:evolver:Max mxHxm} {Oxs_CGEvolve:evolver:Total energy} {Oxs_CGEvolve:evolver:Delta E} {Oxs_CGEvolve:evolver:Bracket count} {Oxs_CGEvolve:evolver:Line min count} {Oxs_CGEvolve:evolver:Conjugate cycle count} {Oxs_CGEvolve:evolver:Cycle count} {Oxs_CGEvolve:evolver:Cycle sub count} {Oxs_CGEvolve:evolver:Energy calc count} Oxs_FixedZeeman:static:Energy Oxs_ExchangePtwise:exchange:Energy {Oxs_ExchangePtwise:exchange:Max Spin Ang} {Oxs_ExchangePtwise:exchange:Stage Max Spin Ang} {Oxs_ExchangePtwise:exchange:Run Max Spin Ang} Oxs_MinDriver::Iteration {Oxs_MinDriver::Stage iteration} Oxs_MinDriver::Stage Oxs_MinDriver::mx    Oxs_MinDriver::my    Oxs_MinDriver::mz   
# Units:                 A/m                                 J                                J                                 {}                                   {}                                        {}                                      {}                                   {}                                      {}                                  J                               J                                     deg                                           deg                                             deg                                  {}                           {}                         {}                 {}                   {}                   {}           
                  0                                -6.5535999999999997e-019              -6.5535999999999997e-019               0                                    0                                         1                                       1                                    0                                       1                                 -6.5535999999999997e-019              0                                      0                                             0                                               0                                   0                            0                          0                    0                    0                    1                  
# Table End
