# ODT 1.0
# Table Start
# Title: mmArchive Data Table, Mon May 27 15:32:21 BST 2024
# Columns: {Oxs_RungeKuttaEvolve:evolver:Total energy} {Oxs_RungeKuttaEvolve:evolver:Energy calc count} {Oxs_RungeKuttaEvolve:evolver:Max dm/dt} Oxs_RungeKuttaEvolve:evolver:dE/dt {Oxs_RungeKuttaEvolve:evolver:Delta E} Oxs_FixedZeeman:static:Energy Oxs_UniformExchange:exchange:Energy {Oxs_UniformExchange:exchange:Max Spin Ang} {Oxs_UniformExchange:exchange:Stage Max Spin Ang} {Oxs_UniformExchange:exchange:Run Max Spin Ang} Oxs_TransformZeeman:pump:Energy Oxs_TimeDriver::Iteration {Oxs_TimeDriver::Stage iteration} Oxs_TimeDriver::Stage Oxs_TimeDriver::mx   Oxs_TimeDriver::my   Oxs_TimeDriver::mz   {Oxs_TimeDriver::Last time step} {Oxs_TimeDriver::Simulation time}
# Units:                        J                                             {}                                         deg/ns                                 J/s                                   J                                  J                                J                                      deg                                            deg                                              deg                                      J                           {}                            {}                          {}                   {}                   {}                   {}                          s                                 s                
                       1.12283665335e-08                              7                                            659957216250000                      -7879924520.5200005                   1.1228366533700001e-08              -2.4310901467800001e-19              1.1228366533700001e-08                     164.36072163099999                             164.36072163099999                               164.36072163099999                      2.9182266848500001e-23          1                             1                           0                    -0.0033611681415      0.0020199049678599999  0.94024216691899998        7.0000000000000001e-12              7.0000000000000001e-12       
