# ODT 1.0
# Table Start
# Title: mmArchive Data Table, Sun May 19 17:33:22 BST 2024
# Columns: {Oxs_CGEvolve:evolver:Max mxHxm} {Oxs_CGEvolve:evolver:Total energy} {Oxs_CGEvolve:evolver:Delta E} {Oxs_CGEvolve:evolver:Bracket count} {Oxs_CGEvolve:evolver:Line min count} {Oxs_CGEvolve:evolver:Conjugate cycle count} {Oxs_CGEvolve:evolver:Cycle count} {Oxs_CGEvolve:evolver:Cycle sub count} {Oxs_CGEvolve:evolver:Energy calc count} Oxs_FixedZeeman:SpinchainZeemanStatic:Energy Oxs_UniformExchange:SpinchainExchange:Energy {Oxs_UniformExchange:SpinchainExchange:Max Spin Ang} {Oxs_UniformExchange:SpinchainExchange:Stage Max Spin Ang} {Oxs_UniformExchange:SpinchainExchange:Run Max Spin Ang} Oxs_DMI_T:SpinchainDMI:Energy Oxs_Demag:SpinchainDemag:Energy Oxs_MinDriver::Iteration {Oxs_MinDriver::Stage iteration} Oxs_MinDriver::Stage Oxs_MinDriver::mx    Oxs_MinDriver::my    Oxs_MinDriver::mz   
# Units:                 A/m                                 J                                J                                 {}                                   {}                                        {}                                      {}                                   {}                                      {}                                         J                                            J                                               deg                                                     deg                                                       deg                                          J                              J                           {}                           {}                         {}                 {}                   {}                   {}           
                  0.072661848182699995               5.8762839978600001e-20              -2.1666711874400001e-34               71                                   40                                        10                                      50                                   39                                      112                                       -6.5394671789799999e-21                          3.49295266642e-20                                22.379567400300001                                      90                                                        90                                        -1.51679053393e-20              4.5540685832700002e-20          92                           92                         0                    0.68576840892599999 -0.23505265496300001  0.151376555069     
# Table End
