# ODT 1.0
# Table Start
# Title: mmArchive Data Table, Fri May 17 16:25:11 BST 2024
# Columns: {Oxs_CGEvolve:evolver:Max mxHxm} {Oxs_CGEvolve:evolver:Total energy} {Oxs_CGEvolve:evolver:Delta E} {Oxs_CGEvolve:evolver:Bracket count} {Oxs_CGEvolve:evolver:Line min count} {Oxs_CGEvolve:evolver:Conjugate cycle count} {Oxs_CGEvolve:evolver:Cycle count} {Oxs_CGEvolve:evolver:Cycle sub count} {Oxs_CGEvolve:evolver:Energy calc count} Oxs_UniformExchange:exchange:Energy {Oxs_UniformExchange:exchange:Max Spin Ang} {Oxs_UniformExchange:exchange:Stage Max Spin Ang} {Oxs_UniformExchange:exchange:Run Max Spin Ang} Oxs_Demag:demag:Energy Oxs_MinDriver::Iteration {Oxs_MinDriver::Stage iteration} Oxs_MinDriver::Stage Oxs_MinDriver::mx    Oxs_MinDriver::my    Oxs_MinDriver::mz   
# Units:                 A/m                                 J                                J                                 {}                                   {}                                        {}                                      {}                                   {}                                      {}                                     J                                      deg                                            deg                                              deg                                 J                       {}                           {}                         {}                 {}                   {}                   {}           
                  0.065850948303400006               1.13463714786e-020               -8.7268700605000001e-035               21                                   19                                        1                                       20                                   19                                      41                                    1.7758807882099999e-023                     0.217742295679                                 0.354196200726                                   0.354196200726                      1.13286126707e-020      39                           39                         0                    0.99999750190299996 -6.3948846218400003e-020 -8.8817841969999997e-020
# Table End
