# ODT 1.0
# Table Start
# Title: mmArchive Data Table, Mon Jun 10 13:00:47 BST 2024
# Columns: {Oxs_RungeKuttaEvolve:evolver:Total energy} {Oxs_RungeKuttaEvolve:evolver:Energy calc count} {Oxs_RungeKuttaEvolve:evolver:Max dm/dt} Oxs_RungeKuttaEvolve:evolver:dE/dt {Oxs_RungeKuttaEvolve:evolver:Delta E} Oxs_UniformExchange:exchange:Energy {Oxs_UniformExchange:exchange:Max Spin Ang} {Oxs_UniformExchange:exchange:Stage Max Spin Ang} {Oxs_UniformExchange:exchange:Run Max Spin Ang} Oxs_Demag:demag:Energy Oxs_FixedZeeman:zeeman:Energy Oxs_UniaxialAnisotropy:uniaxialanisotropy:Energy Oxs_CubicAnisotropy:cubicanisotropy:Energy Oxs_TimeDriver::Iteration {Oxs_TimeDriver::Stage iteration} Oxs_TimeDriver::Stage Oxs_TimeDriver::mx   Oxs_TimeDriver::my   Oxs_TimeDriver::mz   {Oxs_TimeDriver::Last time step} {Oxs_TimeDriver::Simulation time}
# Units:                        J                                             {}                                         deg/ns                                 J/s                                   J                                     J                                      deg                                            deg                                              deg                                 J                          J                                      J                                             J                                 {}                            {}                          {}                   {}                   {}                   {}                          s                                 s                
                       7.3321998680700003e-019                            1                                            0                                     0                                    0                                    0                                       0                                              0                                                0                                   7.3321998680700003e-019       0                                       0                                             0                                 0                             0                           0                     0                    0                    1                          0                                0                         
# Table End
