# ODT 1.0
# Table Start
# Title: mmArchive Data Table, Fri May 17 16:30:59 BST 2024
# Columns: {Oxs_RungeKuttaEvolve:evolver:Total energy} {Oxs_RungeKuttaEvolve:evolver:Energy calc count} {Oxs_RungeKuttaEvolve:evolver:Max dm/dt} Oxs_RungeKuttaEvolve:evolver:dE/dt {Oxs_RungeKuttaEvolve:evolver:Delta E} Oxs_UniformExchange:exchange:Energy {Oxs_UniformExchange:exchange:Max Spin Ang} {Oxs_UniformExchange:exchange:Stage Max Spin Ang} {Oxs_UniformExchange:exchange:Run Max Spin Ang} Oxs_Demag:demag:Energy Oxs_ScriptUZeeman:ZeemanDynamic:Energy Oxs_ScriptUZeeman:ZeemanDynamic:B Oxs_ScriptUZeeman:ZeemanDynamic:Bx Oxs_ScriptUZeeman:ZeemanDynamic:By Oxs_ScriptUZeeman:ZeemanDynamic:Bz Oxs_FixedZeeman:ZeemanStatic:Energy Oxs_TimeDriver::Iteration {Oxs_TimeDriver::Stage iteration} Oxs_TimeDriver::Stage Oxs_TimeDriver::mx   Oxs_TimeDriver::my   Oxs_TimeDriver::mz   {Oxs_TimeDriver::Last time step} {Oxs_TimeDriver::Simulation time}
# Units:                        J                                             {}                                         deg/ns                                 J/s                                   J                                     J                                      deg                                            deg                                              deg                                 J                              J                                   mT                                 mT                                 mT                                 mT                                  J                             {}                            {}                          {}                   {}                   {}                   {}                          s                                 s                
                       1.19417552069e-020                             15163                                        3043.3941920699999                   -5.8840136318400006e-014                 -1.86801325188e-028                   1.1638537457799999e-022                     0.37567268791500003                            0.40428051459999997                              0.40428051459999997                 2.5062380162499999e-020            6.4512036576300002e-022                 3                                 -3                                  0                                  0                                 -1.3882130696000001e-020            2383                          2383                        0                     0.84000047625399998  0.0126304330494      0.54227073031100004        3.9452758532800001e-015              5.0000000000000002e-011       
                       1.1353199315899999e-020                            43022                                        4027.7143221199999                    7.22411992572e-011                   7.6999021974100001e-025                  2.2782598987199999e-023                     0.242018779697                                 0.40960851711200003                              0.40960851711200003                 1.1369907052199999e-020            5.2654516052800003e-036                 2.0577452502399999e-014               -2.0577452502399999e-014                0                                  0                                 -3.9490335294999998e-023            6693                          4309                        1                     0.999548915531      -0.029882635690699998  0.0015425912224599999        1.06457572901e-014               1e-010                    
                       1.07516519116e-020                             73863                                        4705.2484002800002                   -1.2492322626399999e-013                 -6.47584599785e-028                   1.1798184522800001e-022                     0.41536037291299999                            0.44209650458400002                              0.44209650458400002                 2.5199810139e-020             -6.4380752254499999e-022                 3                                  3                                  0                                  0                                 -1.39223325501e-020             11464                         4770                        2                     0.83829104498100004  0.036435054807000003  0.54384111523699996        9.6303085516399996e-015              1.5e-010                  
                       1.13326385569e-020                             105892                                       4885.7182804800004                   -7.2424476882999994e-011                 -2.3819665476900001e-025                  2.7652599262400003e-023                     0.24040192164599999                            0.44274854790899998                              0.44274854790899998                 1.1476527385200001e-020           -2.2535650291900001e-036                 8.8171657475199992e-015                8.8171657475199992e-015                0                                  0                                 -1.71541427563e-022             16420                         4955                        3                     0.99839207375000005 -0.056197605928699997  0.0067008370141800003        3.28892702613e-015               2.0000000000000001e-010       
                       1.19430177336e-020                             138539                                       5041.4614568300003                   -1.6174693615999999e-013                 -5.1620083935299999e-028                  1.14401502607e-022                      0.435943723186                                 0.453783811925                                   0.453783811925                      2.4893032183199999e-020            6.4684462916299999e-022                 3                                 -3                                  0                                  0                                 -1.37112605813e-020             21471                         5050                        4                     0.84224561089000005  0.0599437251566      0.535596116457             3.4144744393699999e-015              2.5000000000000002e-010       
                       1.13624220619e-020                             171564                                       5698.2583780699997                    7.1922547966000001e-011                  3.0288207925000001e-025                  3.2239460313399998e-023                     0.23193097813999999                            0.45399452174299998                              0.45399452174299998                 1.1671018065500001e-020           -7.5064037460299999e-037                 2.9431210073199999e-015                2.9431210073199999e-015                0                                  0                                 -3.40835463956e-022             26580                         5108                        5                     0.99628556080399999 -0.084985977444899996  0.0133138853108            4.2110982166100001e-015              3e-010                    
                       1.07419099953e-020                             204769                                       5539.2100625900002                   -1.9202824431199999e-013                 -6.0091588345699999e-028                  1.1144774279800001e-022                     0.440414848985                                 0.45798194755600002                              0.45798194755600002                 2.49232077682e-020            -6.4659985844900004e-022                 3                                  3                                  0                                  0                                 -1.36461456573e-020             31716                         5135                        6                     0.84192689902200002  0.082810027438999997  0.53305256473899998        3.00211193543e-015               3.4999999999999998e-010       
                       1.13154998327e-020                             238190                                       5879.0548221700001                   -7.2139100730299998e-011                 -3.7276543989799999e-025                  3.5711016414700001e-023                     0.23510445868999999                            0.462329721162                                   0.462329721162                      1.1909309915300001e-020            3.7403959246300003e-036                 1.4703407762199999e-014               -1.4703407762199999e-014                0                                  0                                 -6.2952109903199998e-022            36887                         5170                        7                     0.99370988120199999 -0.109164102092       0.024590667930999999        5.1678982829399999e-015              4.0000000000000001e-010       
                       1.1944964181000001e-020                            271635                                       5826.9411435100001                   -2.08024182306e-013                  -1.0602927289199999e-027                  1.07555231028e-022                      0.43399664925999998                            0.45942417552600001                              0.462329721162                      2.4521138368799999e-020            6.5053326098900004e-022                 3                                 -3                                  0                                  0                                 -1.33342626798e-020             42060                         5172                        8                     0.84704851691299998  0.105150418605       0.52086963592799995        6.8915747657100001e-015              4.5e-010                  
                       1.13683696136e-020                             305290                                       5992.5652103599996                    7.1435434630600004e-011                  5.6069119090499997e-025                  3.87164419846e-023                      0.229826042713                                 0.46644117534500001                              0.46644117534500001                 1.22461070824e-020            -6.7074110787499998e-036                 2.6463694516999999e-014                2.6463694516999999e-014                0                                  0                                 -9.1645391078799994e-022            47267                         5206                        9                     0.99006676900400004 -0.13587993604500001  0.035798980890199998        7.8416576846199995e-015              5.0000000000000003e-010       
                       1.07262855941e-020                             338879                                       6099.2468492300004                   -2.2437900831500001e-013                 -1.24655366048e-027                   1.07127823632e-022                      0.43747355996100001                            0.45911530976499998                              0.46644117534500001                 2.4438866083100001e-020           -6.5133820682600001e-022                 3                                  3                                  0                                  0                                 -1.31683701058e-020             52463                         5195                        10                    0.84809662347100001  0.12645399874900001  0.514389457258             5.4526026448300003e-015              5.4999999999999996e-010       
                       1.1297486184000001e-020                            372696                                       6098.36335194                        -7.1623417938799998e-011                 -5.4677600221200003e-025                  4.0509188927499998e-023                     0.230591854496                                 0.46904332556099998                              0.46904332556099998                 1.25988475455e-020            -1.1130750688800001e-036                 4.4085828737599996e-015                4.4085828737599996e-015                0                                  0                                 -1.34187055041e-021             57694                         5230                        11                    0.98624651329000002 -0.15666980643100001  0.052416818375300003        7.6407505466599993e-015              6e-010                    
                       1.1948986867000001e-020                            406387                                       6031.0796696099997                   -2.2964220758099998e-013                 -8.7469943264300007e-028                  1.0743669455699999e-022                     0.43463419435599998                            0.455414799674                                   0.46904332556099998                 2.3948367174200001e-020            6.5603999550500001e-022                 3                                 -3                                  0                                  0                                 -1.27628569972e-020             62906                         5211                        12                    0.85421874414800003  0.14701583931000001  0.49854910145499998        4.0685747444700003e-015              6.5000000000000003e-010       
                       1.13720859171e-020                             440258                                       6220.5120521700001                    7.0780244092799996e-011                  2.81651042536e-025                   4.2942829253499997e-023                     0.23759652681999999                            0.46929092856799998                              0.46929092856799998                 1.30584827636e-020             3.5078681104499997e-036                 1.3964578191700001e-014               -1.3964578191700001e-014                0                                  0                                 -1.7293396758199998e-021            68146                         5239                        13                    0.98124050854300005 -0.18048655494499999  0.067552331086599998        3.9791174330300001e-015              6.9999999999999996e-010       
                       1.0706249856099999e-020                            473961                                       6129.9286687699996                   -2.39731483674e-013                  -1.5135791236499999e-027                  1.10897391353e-022                      0.43807134924300001                            0.45116078185399999                              0.46929092856799998                 2.37561304383e-020            -6.5784346847199996e-022                 3                                  3                                  0                                  0                                 -1.25029345051e-020             73360                         5213                        14                    0.85656701623999998  0.16616339717799999  0.488395879107             7.4616217501500007e-015              7.5e-010                  
                       1.12798463575e-020                             507886                                       6271.5752166499997                   -7.0922375069399995e-011                 -4.5835662334500003e-025                  4.5753661263200002e-023                     0.25148148205699999                            0.47287843513599997                              0.47287843513599997                 1.34999843807e-020            -5.8791766898e-036                   2.3520573509699999e-014                2.3520573509699999e-014                0                                  0                                 -2.2658916844800001e-021            78608                         5247                        15                    0.976401954445      -0.19690662559800001  0.088511393925000001        6.4655099893900003e-015              8.0000000000000003e-010       
                       1.1955421086100001e-020                            541661                                       6145.0934135999996                   -2.4120500064099998e-013                 -7.1754494003799998e-028                  1.1313034713000001e-022                     0.435310170281                                 0.45056018653899998                              0.47287843513599997                 2.3192302990199999e-020            6.6317124570100001e-022                 3                                 -3                                  0                                  0                                 -1.20131834969e-020             83834                         5225                        16                    0.86350422617300004  0.184374269566       0.46926498034899999        3.10209955118e-015               8.4999999999999996e-010       
                       1.13739597776e-020                             575640                                       6235.6446710199998                    6.9977032251600004e-011                  2.0105708249300001e-025                  5.0720865895199999e-023                     0.276374012753                                 0.472816436743                                   0.47287843513599997                 1.4056689289e-020              1.0862994329600001e-035                 4.3734709863999999e-014               -4.3734709863999999e-014                0                                  0                                 -2.73345037728e-021             89090                         5255                        17                    0.97024929928699999 -0.21719509059600001  0.106775405362             2.8731826875800001e-015              8.9999999999999999e-010       
                       1.06830497279e-020                             609349                                       6208.7184916599999                   -2.4893361989700002e-013                 -1.5621666873400001e-027                  1.15658835017e-022                      0.429620612131                                 0.45388231454400002                              0.47287843513599997                 2.2901715177199999e-020           -6.6588897110399996e-022                 3                                  3                                  0                                  0                                 -1.1668435313200001e-020            94305                         5214                        18                    0.86704293112499997  0.20080495917999999  0.455798254422             7.5234842976500005e-015              9.5000000000000003e-010       
                       1.12633096588e-020                             643358                                       6223.0287940600001                   -7.0077359875600004e-011                 -5.5888984526599999e-025                  5.6653902631300001e-023                     0.30501485996700001                            0.47304051460899998                              0.47304051460899998                 1.4559004927999999e-020           -1.44391836191e-035                  5.84699520507e-014                 5.84699520507e-014                 0                                  0                                 -3.3523491718800001e-021            99565                         5259                        19                    0.96465037226600003 -0.228580696523       0.13095113952699999        7.9850994023399993e-015              1.0000000000000001e-009       
                       1.1963986117599999e-020                            677163                                       6171.2541364199997                   -2.4833207363500002e-013                 -1.23740745027e-027                   1.1418026734199999e-022                     0.41633041442099999                            0.45348629211300001                              0.47304051460899998                 2.22841285256e-020             6.7169003294000004e-022                 3                                 -3                                  0                                  0                                 -1.11060127083e-020             104795                        5229                        20                    0.87459639705799996  0.21613544252399999  0.43382862141900003        7.4060668854599996e-015              1.0500000000000001e-009       
                       1.1373984775500001e-020                            711184                                       6195.04136432                         6.9057573445299997e-011                  5.7593841007099999e-025                  6.43889677037e-023                      0.33547272170699999                            0.47313753852700002                              0.47313753852700002                 1.51871808989e-020             1.8019374637599999e-035                 7.3504841536400003e-014               -7.3504841536400003e-014                0                                  0                                 -3.8775850910700003e-021            110058                        5262                        21                    0.95759926430599995 -0.244937140045       0.15146816762000001        8.3275615456700006e-015              1.0999999999999999e-009       
                       1.06574506501e-020                             744941                                       6156.4508907400004                   -2.5364398617299999e-013                 -8.1518442317599993e-028                  1.1134886276299999e-022                     0.39762637535000001                            0.450609251983                                   0.47313753852700002                 2.1909410148200001e-020           -6.7520557014499998e-022                 3                                  3                                  0                                  0                                 -1.06881027908e-020             115280                        5221                        22                    0.87917391946000001  0.229324782197       0.41750401526499997        3.1093475597600001e-015              1.15e-009                 
                       1.1248245555499999e-020                            778998                                       6139.1003906599999                   -6.91274179078e-011                  -3.0056018062199999e-025                  7.1108462924600005e-023                     0.359209565658                                 0.47435631278899998                              0.47435631278899998                 1.5726182794e-020             -2.28286715141e-035                  9.37189778907e-014                 9.37189778907e-014                 0                                  0                                 -4.5490457014000001e-021            120549                        5268                        23                    0.95150950329200001 -0.25094599721700001  0.17769709771100001        4.3482254504399999e-015              1.2e-009                  
                       1.19740626031e-020                             812809                                       6101.6315869800001                   -2.5198006172700001e-013                 -1.2352101085599999e-027                  1.04699006401e-022                      0.37241923937799998                            0.440942114419                                   0.47435631278899998                 2.1254547479399999e-020            6.8132071612100004e-022                 3                                 -3                                  0                                  0                                 -1.00665045988e-020             125779                        5229                        24                    0.88713634911600003  0.241296235942       0.39322283589200002        5.6226858281300003e-015              1.25e-009                 
                       1.13719618633e-020                             846836                                       6091.0437336699997                    6.8059771792700001e-011                  3.0734197415000002e-025                  7.7737274228800002e-023                     0.37925705530999998                            0.47400123891700002                              0.47435631278899998                 1.6403059340500001e-020            2.4953324492899999e-035                 1.0327497320900001e-013               -1.0327497320900001e-013                0                                  0                                 -5.1088347514199996e-021            131043                        5263                        25                    0.94382908822800005 -0.26318990078600002  0.19956385747700001        4.5154808367600004e-015              1.3000000000000001e-009       
                       1.06303200414e-020                             880605                                       6068.6311407499998                   -2.5631401275600002e-013                 -8.6058965889600006e-028                  9.8352062165599998e-023                     0.34565332437099999                            0.43430512306500002                              0.47435631278899998                 2.0806969117099999e-020           -6.85487979375e-022                  3                                  3                                  0                                  0                                 -9.5895131584900007e-021            136268                        5224                        26                    0.89256247314500003  0.25077019948500001  0.37459035775400001        3.2450474855299999e-015              1.3500000000000001e-009       
                       1.1235088040300001e-020                            914692                                       6006.5499541099998                   -6.8114181918499996e-011                 -2.1015640637499998e-025                  8.1183211053700004e-023                     0.38838100474800002                            0.47223459484699998                              0.47435631278899998                 1.69578622547e-020            -2.9637764381900001e-035                 1.23489109563e-013                 1.23489109563e-013                 0                                  0                                 -5.8039574255200002e-021            141540                        5271                        27                    0.93751195977000001 -0.26376559446100001  0.226717086934             3.0854135625099999e-015              1.3999999999999999e-009       
                       1.19851042548e-020                             948497                                       6008.4773534400001                   -2.5447241996799998e-013                 -7.8097349185200001e-028                  9.0978746998800004e-023                     0.326885849806                                 0.42157404088400002                              0.47435631278899998                 2.0126350392199999e-020            6.9175504025699998e-022                 3                                 -3                                  0                                  0                                 -8.9239799246400002e-021            146771                        5230                        28                    0.90072270866799997  0.258972764006       0.34859296580600002        3.20468951349e-015               1.45e-009                 
                       1.13677061657e-020                             982566                                       5935.5209208300003                    6.7022449415900005e-011                  5.2192566208200003e-025                  8.3726808381799995e-023                     0.39304996870800002                            0.47373909287299998                              0.47435631278899998                 1.76597061637e-020             3.1657703655899999e-035                 1.3304510488100001e-013               -1.3304510488100001e-013                0                                  0                                 -6.3757268063999997e-021            152041                        5269                        29                    0.92948105844600004 -0.27191016189299999  0.24905182837500001        7.7787597038899996e-015              1.5e-009                  
                       1.06023864923e-020                             1016359                                      5924.1407827499997                   -2.5699645060000002e-013                 -1.3808710388799999e-027                  8.6315062203099996e-023                     0.32870358672                                  0.40908178971100001                              0.47435631278899998                 1.9616928768799999e-020           -6.9640258799899998e-022                 3                                  3                                  0                                  0                                 -8.4044547506599995e-021            157268                        5226                        30                    0.90677420312300006  0.26433769681699998  0.32829901369800002        5.2667446906399997e-015              1.55e-009                 
                       1.1223970347800001e-020                            1050464                                      5828.3280182600001                   -6.7074538394500002e-011                 -4.9800075753800001e-025                  8.3606478455799999e-023                     0.390289503471                                 0.47315864396500001                              0.47435631278899998                 1.82083993394e-020            -3.8739258936800002e-035                 1.63917382272e-013                 1.63917382272e-013                 0                                  0                                 -7.0680354700999995e-021            162543                        5274                        31                    0.92317988564999998 -0.26722265189299999  0.27609513555100001        7.4313709121999995e-015              1.6000000000000001e-009       