# ODT 1.0
# Table Start
# Title: mmArchive Data Table, Sat May 18 21:42:21 BST 2024
# Columns: {Oxs_CGEvolve:evolver:Max mxHxm} {Oxs_CGEvolve:evolver:Total energy} {Oxs_CGEvolve:evolver:Delta E} {Oxs_CGEvolve:evolver:Bracket count} {Oxs_CGEvolve:evolver:Line min count} {Oxs_CGEvolve:evolver:Conjugate cycle count} {Oxs_CGEvolve:evolver:Cycle count} {Oxs_CGEvolve:evolver:Cycle sub count} {Oxs_CGEvolve:evolver:Energy calc count} Oxs_FixedZeeman:SpinchainZeemanStatic:Energy Oxs_ScriptUZeeman:SpinchainZeemanDynamic:Energy Oxs_ScriptUZeeman:SpinchainZeemanDynamic:B Oxs_ScriptUZeeman:SpinchainZeemanDynamic:Bx Oxs_ScriptUZeeman:SpinchainZeemanDynamic:By Oxs_ScriptUZeeman:SpinchainZeemanDynamic:Bz Oxs_UniformExchange:SpinchainExchange:Energy {Oxs_UniformExchange:SpinchainExchange:Max Spin Ang} {Oxs_UniformExchange:SpinchainExchange:Stage Max Spin Ang} {Oxs_UniformExchange:SpinchainExchange:Run Max Spin Ang} Oxs_DMI_T:SpinchainDMI:Energy Oxs_Demag:SpinchainDemag:Energy Oxs_MinDriver::Iteration {Oxs_MinDriver::Stage iteration} Oxs_MinDriver::Stage Oxs_MinDriver::mx    Oxs_MinDriver::my    Oxs_MinDriver::mz   
# Units:                 A/m                                 J                                J                                 {}                                   {}                                        {}                                      {}                                   {}                                      {}                                         J                                              J                                            mT                                         mT                                          mT                                          mT                                           J                                               deg                                                     deg                                                       deg                                          J                              J                           {}                           {}                         {}                 {}                   {}                   {}           
                  0.050290346547700003               2.32769522349e-21                 2.32769522349e-21                 0                                    0                                         1                                       1                                    0                                       1                                         -1.6000000000000001e-21                           0                                             6.3196713304299995e-05                        6.3196713304299995e-05                         0                                           0                                            0                                                0                                                       0                                                         0                                          0                              3.9276952234900001e-21          0                            0                          0                    0                    0                    1                  
# Table End
