# ODT 1.0
# Table Start
# Title: mmArchive Data Table, Sun May 19 17:54:53 BST 2024
# Columns: {Oxs_RungeKuttaEvolve:evolver:Total energy} {Oxs_RungeKuttaEvolve:evolver:Energy calc count} {Oxs_RungeKuttaEvolve:evolver:Max dm/dt} Oxs_RungeKuttaEvolve:evolver:dE/dt {Oxs_RungeKuttaEvolve:evolver:Delta E} Oxs_FixedZeeman:SpinchainZeemanStatic:Energy Oxs_UniformExchange:SpinchainExchange:Energy {Oxs_UniformExchange:SpinchainExchange:Max Spin Ang} {Oxs_UniformExchange:SpinchainExchange:Stage Max Spin Ang} {Oxs_UniformExchange:SpinchainExchange:Run Max Spin Ang} Oxs_DMI_T:SpinchainDMI:Energy Oxs_Demag:SpinchainDemag:Energy Oxs_ScriptUZeeman:SpinchainZeemanDynamic:Energy Oxs_ScriptUZeeman:SpinchainZeemanDynamic:B Oxs_ScriptUZeeman:SpinchainZeemanDynamic:Bx Oxs_ScriptUZeeman:SpinchainZeemanDynamic:By Oxs_ScriptUZeeman:SpinchainZeemanDynamic:Bz Oxs_TimeDriver::Iteration {Oxs_TimeDriver::Stage iteration} Oxs_TimeDriver::Stage Oxs_TimeDriver::mx   Oxs_TimeDriver::my   Oxs_TimeDriver::mz   {Oxs_TimeDriver::Last time step} {Oxs_TimeDriver::Simulation time}
# Units:                        J                                             {}                                         deg/ns                                 J/s                                   J                                         J                                            J                                               deg                                                     deg                                                       deg                                          J                              J                                       J                                            mT                                         mT                                          mT                                          mT                                 {}                            {}                          {}                   {}                   {}                   {}                          s                                 s                
                       2.4519162402e-18                               101                                          84650.256598299995                   -2.0707225900899999e-10                  1.3461222850500001e-20                      -5.3537891634800002e-21                          2.3678694931799999e-18                              156.867871014                                           178.72647192599999                                        178.72647192599999                         1.9907115979799999e-20            6.9464011851599995e-20                     2.9408351010599998e-23                           3                                         -3                                           0                                           0                                  50                            50                          0                     0.022691628866199999  0.0123705365623      0.12393030470999999        9.9999999999999998e-13              5.0000000000000002e-11       
                       2.5642254010199999e-18                            202                                          80137.617029400004                   -1.7113165403999999e-10                 -1.28669902321e-20                        -1.16889992811e-21                            2.4308115929900002e-18                              152.36136462600001                                      179.459645725                                             179.459645725                              5.2480676482900001e-20            8.2102031478499997e-20                     3.7053804110800001e-38                           1.1021821192300001e-15                        1.1021821192300001e-15                         0                                           0                                  101                           50                          1                    -0.077820800396199999 -0.030913746460900001  0.0270578687062            9.9999999999999998e-13              1e-10                     
                       2.5419697700100001e-18                            303                                          78868.789144399998                   -1.5700513908999999e-10                 -4.9911455759499999e-20                      -1.3517824064699999e-21                          2.47553331585e-18                                173.98443590900001                                      179.26151772099999                                        179.459645725                             -7.5992132499299993e-21            7.5291459676899997e-20                     9.5990139375600005e-23                           3                                          3                                           0                                           0                                  152                           50                          2                    -0.074066465567600007 -0.045760997372799997  0.031291259409099999        9.9999999999999998e-13              1.5e-10                   
                       2.5195197461300001e-18                            404                                          83960.147074699998                   -1.9364136230700001e-10                  1.9989201584300001e-20                      -2.5874939129800001e-21                          2.4575512256299999e-18                              153.77082897599999                                      178.13318442600001                                        179.459645725                             -1.61212381657e-20              8.0677252584400003e-20                     8.9219880887900003e-38                           2.2043642384700001e-15                       -2.2043642384700001e-15                         0                                           0                                  203                           50                          3                     0.093690279696799994  0.013001420150600001  0.059895692430000001        9.9999999999999998e-13              2.0000000000000001e-10       
                       2.4888367480399999e-18                            505                                          85375.719871299996                   -1.6602905005700001e-10                 -3.2588778645099998e-20                      -6.9895908396900001e-21                          2.3914087790499999e-18                              170.33305222499999                                      175.87849986800001                                        179.459645725                              2.6351641747999999e-20            7.8121004225000001e-20                    -5.5086140534400006e-23                           3                                         -3                                           0                                           0                                  254                           50                          4                    -0.0425047380667     -0.0596039474022      0.16179608425200001        9.9999999999999998e-13              2.5000000000000002e-10       
                       2.57977754147e-18                              606                                          73466.771956500001                   -1.55686728537e-10                   -1.6003412576900001e-20                      -2.5514118349499999e-21                          2.4690329002900001e-18                              167.29606953199999                                      177.79263984100001                                        179.459645725                              4.49703023797e-20              6.8325750628900001e-20                    -3.0401699599599999e-37                           1.39646873941e-14                          1.39646873941e-14                           0                                           0                                  305                           50                          5                     0.050394471886599998  0.0441115276283      0.059060459142300001        9.9999999999999998e-13              3e-10                     
                       2.3936448746299999e-18                            707                                          93688.552064999996                   -1.6465032183600001e-10                 -3.94967015337e-20                        -4.2201118509700002e-21                          2.3234547719599999e-18                              169.28637908100001                                      177.67173536600001                                        179.459645725                              6.5403483942599999e-22            7.3924511333699996e-20                    -1.68331648729e-22                             3                                          3                                           0                                           0                                  356                           50                          6                     0.12988553142699999  0.027459120493800001  0.097687774328099997        9.9999999999999998e-13              3.4999999999999998e-10       
                       2.4355555341100002e-18                            808                                          91009.527298999994                   -1.9231165952400001e-10                 -3.4214762496400002e-20                      -8.4513134606100001e-21                          2.3318572496099999e-18                              158.22414244500001                                      178.83760081299999                                        179.459645725                              3.5396296531000003e-20            7.6753301426400003e-20                     8.1533084526799995e-38                           2.5725010549700001e-14                       -2.5725010549700001e-14                         0                                           0                                  407                           50                          7                     0.0073365953182200003  0.13151870592699999  0.195632256033             9.9999999999999998e-13              4.0000000000000001e-10       
                       2.50809203625e-18                              909                                          89619.624036099995                   -1.7921958236499999e-10                 -9.9980473256500003e-21                      -4.7682904555899999e-21                          2.4603901512400001e-18                              174.88670981999999                                      175.459914183                                             179.459645725                             -1.8432624538500001e-20            7.0963523727799997e-20                    -6.0723727918799998e-23                           3                                         -3                                           0                                           0                                  458                           50                          8                    -0.046854728332400002 -0.13604311716600001  0.11037709387899999        9.9999999999999998e-13              4.5e-10                   
                       2.6585426696899998e-18                            1010                                         76850.865611800007                   -1.8301344087900001e-10                  3.2081693114300002e-20                      -7.3745232984800005e-21                          2.5509052301699999e-18                              173.249938332                                           177.42897025600001                                        179.459645725                              4.38210829351e-20              7.1190879884500004e-20                     1.8262802116399999e-37                           3.7485333705400003e-14                        3.7485333705400003e-14                         0                                           0                                  509                           50                          9                    -0.0112777453794     -0.0194406397756      0.17070655783499999        9.9999999999999998e-13              5.0000000000000003e-10       
                       2.4264195233800001e-18                            1111                                         92049.873980999997                   -1.9250974365100001e-10                  3.3639457011200003e-20                      -5.74924769313e-21                            2.3845970868899999e-18                              166.10156897799999                                      178.73981761600001                                        179.459645725                             -2.9678399939600003e-20            7.7286828695700004e-20                    -3.6744567826700001e-23                           3                                          3                                           0                                           0                                  560                           50                          10                    0.028352289989699998 -0.036061620685899999  0.13308443734100001        9.9999999999999998e-13              5.4999999999999996e-10       
                       2.61474353754e-18                              1212                                         87931.546973999997                   -1.45473100495e-10                   -3.7609769163399998e-20                      -3.4843140793800002e-21                          2.49822526024e-18                                174.94820473799999                                      177.762465964                                             179.459645725                              4.8799542015499998e-20            7.1203049366700006e-20                    -1.7778697711000001e-37                           2.79293747882e-14                         -2.79293747882e-14                           0                                           0                                  611                           50                          11                   -0.014735164378600001 -0.0106983943945      0.080655418504199994        9.9999999999999998e-13              6e-10                     
                       2.5216770551600001e-18                            1313                                         80275.349134499993                   -1.5898587886099999e-10                 -3.8784752224099999e-20                      -5.8391499616100002e-21                          2.4352688953699998e-18                              169.949689616                                           177.48248235099999                                        179.459645725                              2.1637094297199999e-20            7.0693340845400003e-20                    -8.3125392998900003e-23                           3                                         -3                                           0                                           0                                  662                           50                          12                   -0.064139963733699998 -0.083115422263999997  0.135165508371             9.9999999999999998e-13              6.5000000000000003e-10       
                       2.5227629118900002e-18                            1414                                         82359.620759099998                   -1.6460557831399999e-10                  4.4137920841899997e-20                      -8.2638558744499995e-22                          2.43311804125e-18                                168.61440590699999                                      176.211288913                                             179.459645725                              1.10513425441e-20              7.9419913680100005e-20                     1.29006686617e-37                             2.9428662017699999e-15                       -2.9428662017699999e-15                         0                                           0                                  713                           50                          13                    0.10147474228       -0.0301578895586      0.0191292960057            9.9999999999999998e-13              6.9999999999999996e-10       
                       2.4999781944500001e-18                            1515                                         82322.594989699995                   -1.7675394369500001e-10                  2.14447869497e-21                        -3.4409864030000001e-21                          2.43098705857e-18                                164.91803915899999                                      178.001057879                                             179.459645725                             -6.3589602902099995e-23            7.2514061129600005e-20                    -1.8349238596699999e-23                           3                                          3                                           0                                           0                                  764                           50                          14                    0.0141583631147      0.012115029328600001  0.079652463032300003        9.9999999999999998e-13              7.5e-10                   
                       2.5843943545499999e-18                            1616                                         91570.868644400005                   -1.8728186413399999e-10                 -1.14657827461e-20                        -9.6506809192899999e-21                          2.5496017641999999e-18                              166.85995279599999                                      179.415253439                                             179.459645725                             -3.0495842076199999e-20            7.4939113345400003e-20                    -1.6255472639199999e-39                           8.8174569538599998e-15                       -8.8174569538599998e-15                         0                                           0                                  815                           50                          15                   -0.00042674899445500002  0.056341736965599999  0.22339539165              9.9999999999999998e-13              8.0000000000000003e-10       
                       2.56006491043e-18                              1717                                         87481.935303399994                   -1.54645446401e-10                   -4.4838657074099998e-20                      -4.5244716497499997e-21                          2.4989811942e-18                                 157.39744803400001                                      177.77656573900001                                        179.459645725                              5.2595199863100004e-22            6.5149383175599999e-20                    -6.7147294724899995e-23                           3                                         -3                                           0                                           0                                  866                           50                          16                   -0.051811184201300001  0.013841689877500001  0.10473314004000001        9.9999999999999998e-13              8.4999999999999996e-10       
                       2.6048079568799999e-18                            1818                                         79106.576136400006                   -1.43250732377e-10                   -2.1602178720499999e-20                      -6.01312305077e-21                            2.50859151843e-18                                149.88851365400001                                      176.203550627                                             179.459645725                              2.40402227476e-20              7.8189338746800002e-20                     2.7569840095e-37                              2.2054784036099999e-14                       -2.2054784036099999e-14                         0                                           0                                  917                           50                          17                    0.0289366126594      0.053547814865000001  0.139192663212             9.9999999999999998e-13              8.9999999999999999e-10       
                       2.4990800678899999e-18                            1919                                         76600.139018500005                   -1.67967818098e-10                   -1.49136918898e-20                        -7.3756127647499995e-21                          2.3929550376500002e-18                              158.02612153000001                                      176.48234640499999                                        179.459645725                              3.22982426029e-20              8.12278128689e-20                      -2.5412474196000001e-23                           3                                          3                                           0                                           0                                  968                           50                          18                    0.019608390583399998  0.040930382276699998  0.17073177696200001        9.9999999999999998e-13              9.5000000000000003e-10       
                       2.4427967442399998e-18                            2020                                         78113.6013924                        -1.36959565261e-10                   -1.6566438198500001e-20                      -4.8209962157300001e-21                          2.35601542871e-18                                172.927276783                                           177.63713612800001                                        179.459645725                              1.6850103808499999e-20            7.4752207932500005e-20                     9.1404959977199996e-38                           5.29270250261e-14                          5.29270250261e-14                           0                                           0                                  1019                          50                          19                   -0.0039976846497300003  0.038029858622399999  0.111597134623             9.9999999999999998e-13              1.0000000000000001e-09       
                       2.5235784280300001e-18                            2121                                         93298.817386499999                   -1.93061383074e-10                    1.0701434874100001e-21                      -3.4770499054500002e-21                          2.4293449712800002e-18                              173.91987087699999                                      178.16921060300001                                        179.459645725                              2.6979757930300001e-20            7.0755901352100001e-20                    -2.5152623853e-23                              3                                         -3                                           0                                           0                                  1070                          50                          20                   -0.019407888775499999 -0.065122844678900005  0.080487266329899998        9.9999999999999998e-13              1.0500000000000001e-09       
                       2.63623068231e-18                              2222                                         92850.665276600004                   -1.4167313707500001e-10                 -3.0004624857599998e-20                       2.1491527709599999e-23                          2.5260195049999999e-18                              175.564563091                                           177.102187711                                             179.459645725                              2.9879665064599998e-20            8.0310020718500006e-20                     6.3203747677399997e-37                           4.1166701870400002e-14                       -4.1166701870400002e-14                         0                                           0                                  1121                          50                          21                    0.035539638792500002  0.0433004200023     -0.00049748906735100004        9.9999999999999998e-13              1.0999999999999999e-09       
                       2.45582101403e-18                              2323                                         86843.733752100001                   -1.78685519518e-10                    3.9854545820199998e-21                      -5.6152866537799999e-21                          2.37899803013e-18                                157.69087839900001                                      177.43852439899999                                        179.459645725                              1.29599363827e-20              6.9462902949700003e-20                     1.54312197879e-23                             3                                          3                                           0                                           0                                  1172                          50                          22                   -0.0119068053919      0.0166601619331      0.12998348735599999        9.9999999999999998e-13              1.15e-09                  
                       2.35169772557e-18                              2424                                         90174.973723999996                   -1.82967283034e-10                   -2.8871938684799997e-20                      -4.1030347679999998e-21                          2.2529454035200001e-18                              140.79041340699999                                      177.24889520100001                                        179.459645725                              2.8579811497300001e-20            7.4275545316300006e-20                     2.8276092730100001e-36                           7.2038942860400002e-14                        7.2038942860400002e-14                         0                                           0                                  1223                          50                          23                   -0.090859076712799997 -0.032813385682900001  0.094977656666600005        9.9999999999999998e-13              1.2e-09                   
                       2.37965567487e-18                              2525                                         87951.218278200002                   -1.9164402035800001e-10                  7.1185155850400007e-21                      -6.43254276907e-21                            2.3212248554499999e-18                              154.172702238                                           178.785154495                                             179.459645725                             -1.1664386154000001e-20            7.6646521921399996e-20                    -1.18773580058e-22                             3                                         -3                                           0                                           0                                  1274                          50                          24                   -0.091646280909300007  0.016176360163599999  0.148901452988             9.9999999999999998e-13              1.25e-09                  
                       2.6326090812599999e-18                            2626                                         88297.516032                         -2.17294599021e-10                    3.6740338210500002e-20                      -4.5831404433899997e-21                          2.56651482689e-18                                167.898928789                                           179.56013620100001                                        179.56013620100001                         2.0561154937499998e-21            6.8621279313799999e-20                     1.2543249101499999e-36                           1.0291118384999999e-13                       -1.0291118384999999e-13                         0                                           0                                  1325                          50                          25                    0.028213939204300001  0.0424375525186      0.106091213967             9.9999999999999998e-13              1.3000000000000001e-09       
                       2.603029923e-18                                2727                                         82517.572323300003                   -2.0174636267499999e-10                 -4.7010951594199999e-20                      -1.3522864265e-21                             2.5188444120000002e-18                              161.22299780700001                                      178.31606125499999                                        179.56013620100001                         2.1208502278700001e-20            6.4186301407799995e-20                     1.4299374195100001e-22                           3                                          3                                           0                                           0                                  1376                          50                          26                   -0.11033467743100001  0.0334798713416      0.031302926539399999        9.9999999999999998e-13              1.3500000000000001e-09       