# ODT 1.0
# Table Start
# Title: mmArchive Data Table, Mon Jun 10 12:58:48 BST 2024
# Columns: {Oxs_CGEvolve:evolver:Max mxHxm} {Oxs_CGEvolve:evolver:Total energy} {Oxs_CGEvolve:evolver:Delta E} {Oxs_CGEvolve:evolver:Bracket count} {Oxs_CGEvolve:evolver:Line min count} {Oxs_CGEvolve:evolver:Conjugate cycle count} {Oxs_CGEvolve:evolver:Cycle count} {Oxs_CGEvolve:evolver:Cycle sub count} {Oxs_CGEvolve:evolver:Energy calc count} Oxs_FixedZeeman:static:Energy Oxs_UniformExchange:exchange:Energy {Oxs_UniformExchange:exchange:Max Spin Ang} {Oxs_UniformExchange:exchange:Stage Max Spin Ang} {Oxs_UniformExchange:exchange:Run Max Spin Ang} Oxs_DMI_T:dmi:Energy Oxs_MinDriver::Iteration {Oxs_MinDriver::Stage iteration} Oxs_MinDriver::Stage Oxs_MinDriver::mx    Oxs_MinDriver::my    Oxs_MinDriver::mz   
# Units:                 A/m                                 J                                J                                 {}                                   {}                                        {}                                      {}                                   {}                                      {}                                  J                                J                                      deg                                            deg                                              deg                                J                      {}                           {}                         {}                 {}                   {}                   {}           
                  0.098545241846600004              -1.37885040069e-016                0                                 628                                  607                                       8                                       616                                  600                                     1236                              -1.3741238871699999e-016              1.41232089087e-019                      10.662957945700001                             23.201514605                                     23.201514605                      -6.1388344190200001e-019    1229                         1229                       0                   -1.2947542073899999e-009  0.99863654590499995 -0.0048771421368900003
# Table End
