# ODT 1.0
# Table Start
# Title: mmArchive Data Table, Mon May 27 15:58:34 BST 2024
# Columns: {Oxs_RungeKuttaEvolve:evolver:Total energy} {Oxs_RungeKuttaEvolve:evolver:Energy calc count} {Oxs_RungeKuttaEvolve:evolver:Max dm/dt} Oxs_RungeKuttaEvolve:evolver:dE/dt {Oxs_RungeKuttaEvolve:evolver:Delta E} Oxs_FixedZeeman:static:Energy Oxs_UniformExchange:exchange:Energy {Oxs_UniformExchange:exchange:Max Spin Ang} {Oxs_UniformExchange:exchange:Stage Max Spin Ang} {Oxs_UniformExchange:exchange:Run Max Spin Ang} Oxs_TransformZeeman:pump:Energy Oxs_TimeDriver::Iteration {Oxs_TimeDriver::Stage iteration} Oxs_TimeDriver::Stage Oxs_TimeDriver::mx   Oxs_TimeDriver::my   Oxs_TimeDriver::mz   {Oxs_TimeDriver::Last time step} {Oxs_TimeDriver::Simulation time}
# Units:                        J                                             {}                                         deg/ns                                 J/s                                   J                                  J                                J                                      deg                                            deg                                              deg                                      J                           {}                            {}                          {}                   {}                   {}                   {}                          s                                 s                
                       8.7840454697400001e-09                            7                                            65995721642300                       -413787811.213                        8.7840454710400005e-09              -1.17681968001e-18                8.7840454709199998e-09                     164.36076584                                   164.36076584                                     164.36076584                           -3.0211882993499998e-22          1                             1                           0                     0.0077731378609     -0.0081921972185900003  0.90136311275600001        7.0000000000000001e-12              7.0000000000000001e-12       
