# ODT 1.0
# Table Start
# Title: mmArchive Data Table, Sat May 18 21:48:02 BST 2024
# Columns: {Oxs_CGEvolve:evolver:Max mxHxm} {Oxs_CGEvolve:evolver:Total energy} {Oxs_CGEvolve:evolver:Delta E} {Oxs_CGEvolve:evolver:Bracket count} {Oxs_CGEvolve:evolver:Line min count} {Oxs_CGEvolve:evolver:Conjugate cycle count} {Oxs_CGEvolve:evolver:Cycle count} {Oxs_CGEvolve:evolver:Cycle sub count} {Oxs_CGEvolve:evolver:Energy calc count} Oxs_FixedZeeman:SpinchainZeemanStatic:Energy Oxs_UniformExchange:SpinchainExchange:Energy {Oxs_UniformExchange:SpinchainExchange:Max Spin Ang} {Oxs_UniformExchange:SpinchainExchange:Stage Max Spin Ang} {Oxs_UniformExchange:SpinchainExchange:Run Max Spin Ang} Oxs_DMI_T:SpinchainDMI:Energy Oxs_Demag:SpinchainDemag:Energy Oxs_MinDriver::Iteration {Oxs_MinDriver::Stage iteration} Oxs_MinDriver::Stage Oxs_MinDriver::mx    Oxs_MinDriver::my    Oxs_MinDriver::mz   
# Units:                 A/m                                 J                                J                                 {}                                   {}                                        {}                                      {}                                   {}                                      {}                                         J                                            J                                               deg                                                     deg                                                       deg                                          J                              J                           {}                           {}                         {}                 {}                   {}                   {}           
                  0.0847924454499                   5.8143516625099999e-20               0                                 294                                  224                                       12                                      256                                  236                                     519                                       -1.08545717607e-20                            1.04837108987e-19                                9.8202227928599992                                      90                                                        90                                        -1.03815200934e-19              6.7976180332699996e-20          483                          483                        0                    0.740122217794      -0.21341288823099999  0.1413355698       
# Table End
