# ODT 1.0
# Table Start
# Title: mmArchive Data Table, Sun May 19 17:36:45 BST 2024
# Columns: {Oxs_CGEvolve:evolver:Max mxHxm} {Oxs_CGEvolve:evolver:Total energy} {Oxs_CGEvolve:evolver:Delta E} {Oxs_CGEvolve:evolver:Bracket count} {Oxs_CGEvolve:evolver:Line min count} {Oxs_CGEvolve:evolver:Conjugate cycle count} {Oxs_CGEvolve:evolver:Cycle count} {Oxs_CGEvolve:evolver:Cycle sub count} {Oxs_CGEvolve:evolver:Energy calc count} Oxs_FixedZeeman:SpinchainZeemanStatic:Energy Oxs_UniformExchange:SpinchainExchange:Energy {Oxs_UniformExchange:SpinchainExchange:Max Spin Ang} {Oxs_UniformExchange:SpinchainExchange:Stage Max Spin Ang} {Oxs_UniformExchange:SpinchainExchange:Run Max Spin Ang} Oxs_DMI_T:SpinchainDMI:Energy Oxs_Demag:SpinchainDemag:Energy Oxs_MinDriver::Iteration {Oxs_MinDriver::Stage iteration} Oxs_MinDriver::Stage Oxs_MinDriver::mx    Oxs_MinDriver::my    Oxs_MinDriver::mz   
# Units:                 A/m                                 J                                J                                 {}                                   {}                                        {}                                      {}                                   {}                                      {}                                         J                                            J                                               deg                                                     deg                                                       deg                                          J                              J                           {}                           {}                         {}                 {}                   {}                   {}           
                  0                                 6.2847771034299995e-20               6.2847771034299995e-20               0                                    0                                         1                                       1                                    0                                       1                                         -4.3200000000000002e-20                          0                                                0                                                       0                                                         0                                          0                              1.06047771034e-19            0                            0                          0                    0                    0                    1                  
# Table End
