# ODT 1.0
# Table Start
# Title: mmArchive Data Table, Sun May 19 17:56:21 BST 2024
# Columns: {Oxs_RungeKuttaEvolve:evolver:Total energy} {Oxs_RungeKuttaEvolve:evolver:Energy calc count} {Oxs_RungeKuttaEvolve:evolver:Max dm/dt} Oxs_RungeKuttaEvolve:evolver:dE/dt {Oxs_RungeKuttaEvolve:evolver:Delta E} Oxs_FixedZeeman:SpinchainZeemanStatic:Energy Oxs_UniformExchange:SpinchainExchange:Energy {Oxs_UniformExchange:SpinchainExchange:Max Spin Ang} {Oxs_UniformExchange:SpinchainExchange:Stage Max Spin Ang} {Oxs_UniformExchange:SpinchainExchange:Run Max Spin Ang} Oxs_DMI_T:SpinchainDMI:Energy Oxs_Demag:SpinchainDemag:Energy Oxs_ScriptUZeeman:SpinchainZeemanDynamic:Energy Oxs_ScriptUZeeman:SpinchainZeemanDynamic:B Oxs_ScriptUZeeman:SpinchainZeemanDynamic:Bx Oxs_ScriptUZeeman:SpinchainZeemanDynamic:By Oxs_ScriptUZeeman:SpinchainZeemanDynamic:Bz Oxs_TimeDriver::Iteration {Oxs_TimeDriver::Stage iteration} Oxs_TimeDriver::Stage Oxs_TimeDriver::mx   Oxs_TimeDriver::my   Oxs_TimeDriver::mz   {Oxs_TimeDriver::Last time step} {Oxs_TimeDriver::Simulation time}
# Units:                        J                                             {}                                         deg/ns                                 J/s                                   J                                         J                                            J                                               deg                                                     deg                                                       deg                                          J                              J                                       J                                            mT                                         mT                                          mT                                          mT                                 {}                            {}                          {}                   {}                   {}                   {}                          s                                 s                
                       6.2847620193999999e-20                            40003                                        55.682609717600002                    9.1000440021800001e-14                  2.2748945426400001e-29                      -4.3198693736399998e-20                          2.3468537188999999e-24                              0.17077820332599999                                     0.17077820332599999                                       0.17077820332599999                       -3.8379844157599997e-30            1.06046941958e-19                      -2.9748769512699999e-24                           2.85316954889                              2.85316954889                               0                                           0                                  20001                         20001                       0                     0.00241355766668    -0.0064798342458100002  0.99996976241699997        2.50000002469e-16                1.9999999999999999e-11       
                       6.2860072642600004e-20                            80006                                        75.918883461500002                    9.7671710339999994e-13                  2.44179897738e-28                        -4.3191353224600002e-20                          1.12456922307e-23                                0.25370173799200002                                     0.25370173799200002                                       0.25370173799200002                       -4.02260765645e-28              1.0603265016e-19                        7.5304175844800001e-24                           1.76335575688                             -1.76335575688                               0                                           0                                  40003                         20001                       1                     0.0098854256257099992 -0.013675451814300001  0.99979984316199999        2.50000002469e-16                3.9999999999999998e-11       
                       6.2855102688099999e-20                            120009                                       114.704773273                        -2.3870973159599998e-12                 -5.9676615605700003e-28                      -4.3168163660000001e-20                          3.89124610354e-23                                0.55488024550399995                                     0.55488024550399995                                       0.55488024550399995                       -1.43327126482e-26              1.0596597068799999e-19                     1.83975316092e-23                             1.76335575688                             -1.76335575688                               0                                           0                                  60005                         20001                       2                     0.024151041875100001 -0.023558888755899999  0.99926304768499996        2.50000002469e-16                6e-11                     
                       6.2783931362800002e-20                            160012                                       377.67295887                         -2.1029771539400002e-12                 -5.2576039814399997e-28                      -4.30054969101e-20                            2.36763164808e-22                                1.3896648655099999                                      1.3896648655099999                                        1.3896648655099999                        -4.5803953792200004e-25            1.05621637982e-19                      -6.8514834615400004e-23                           2.85316954889                              2.85316954889                               0                                           0                                  80007                         20001                       3                     0.055587006479900003 -0.061768351903500003  0.99549761365900002        2.50000002469e-16                7.9999999999999995e-11       
                       6.2917506471700005e-20                            200015                                       874.16328372700002                    1.6733944458e-11                     4.1834629456899998e-27                      -4.1994052667400001e-20                          1.48874109958e-21                                3.6395635400400002                                      3.6395635400400002                                        3.6395635400400002                        -1.5978674766699999e-23            1.03438796714e-19                      -6.5330737542299997e-38                           1.1021821192300001e-15                        1.1021821192300001e-15                         0                                           0                                  100009                        20001                       4                     0.13720832200700001 -0.15224550149400001  0.97208455248600001        2.50000002469e-16                1e-10                     
                       6.3131967131699995e-20                            240018                                       1929.45543828                        -1.22723532956e-11                   -3.0679626024900001e-27                      -3.6881336608500002e-20                          8.4852659180199993e-21                              10.1507700882                                           10.1507700882                                             10.1507700882                             -5.4857980306900003e-22            9.1679893271599996e-20                     3.9672435361000001e-22                           2.85316954889                             -2.85316954889                               0                                           0                                  120011                        20001                       5                     0.32186780189500003 -0.31180662867999998  0.85373464371499996        2.50000002469e-16                1.2e-10                   
                       6.2159437498400005e-20                            280021                                       3306.63897043                        -6.0755039892800002e-11                 -1.5188856856400001e-26                      -2.0286110188099999e-20                          4.0614553446500001e-20                              26.822335820300001                                      26.822335820300001                                        26.822335820300001                        -1.32938952893e-20              5.5590672305000003e-20                    -4.6578277569399998e-22                           1.76335575688                              1.76335575688                               0                                           0                                  140013                        20001                       6                     0.61144829423000002 -0.32968402769499999  0.46958588398399997        2.50000002469e-16                1.4000000000000001e-10       
                       6.2155733995899996e-20                            320024                                       2823.8503252099999                    6.2092969557200005e-11                  1.55231191633e-26                        -1.1881204108000001e-20                          5.7639275908200006e-20                              19.871773424899999                                      28.614727820599999                                        28.614727820599999                        -3.5319802196500003e-20            5.2198273339899997e-20                    -4.8080894769400004e-22                           1.76335575688                              1.76335575688                               0                                           0                                  160015                        20001                       7                     0.63117364200399995  0.055616260725199998  0.27502787287000002        2.50000002469e-16                1.5999999999999999e-10       
                       6.3339685991900003e-20                            360027                                       2473.5147518799999                    2.0076498148e-11                     5.0193172263000003e-27                      -2.2889640602499999e-20                          3.9615150897400002e-20                              23.9008609242                                           23.964941440800001                                        28.614727820599999                        -1.6783193864900001e-20            6.2734010665400004e-20                     6.6335889653099999e-22                           2.85316954889                             -2.85316954889                               0                                           0                                  180017                        20001                       8                     0.53819199136899998  0.31090077418500001  0.52985279172599997        2.50000002469e-16                1.8e-10                   
                       6.2854901456699998e-20                            400030                                       2171.7911467499998                   -4.0132804294999998e-11                 -1.0033243168900001e-26                      -3.7005744092900003e-20                          1.0255980866900001e-20                              13.1698065038                                           23.9008609242                                             28.614727820599999                        -7.3256030039999998e-22            9.0337224983099997e-20                    -1.19578347666e-36                             8.4537767979399999e-15                        8.4537767979399999e-15                         0                                           0                                  200019                        20001                       9                     0.327429665255       0.274707849979       0.85661444659599995        2.50000002469e-16                2.0000000000000001e-10       
                       6.2515165380999998e-20                            440033                                       1287.97665084                         6.3804629897700003e-12                  1.5950636186299999e-27                      -4.17799854369e-20                            2.71963542186e-21                                5.5075468793100004                                      13.1698065038                                             28.614727820599999                         2.4933268071500001e-22            1.01535937198e-19                      -2.09754482707e-22                             2.85316954889                              2.85316954889                               0                                           0                                  220021                        20001                       10                    0.17017663189099999  0.11427799443099999  0.96712929252199997        2.50000002469e-16                2.1999999999999999e-10       
                       6.2774408110299996e-20                            480036                                       767.56042734799996                    1.1318795778e-11                     2.82972371574e-27                        -4.2166201164799999e-20                          3.5939196011800003e-21                              6.3310295209799996                                      6.3310295209799996                                        28.614727820599999                        -4.75021168747e-23              1.01306838124e-19                       8.7353666602e-23                              1.76335575688                             -1.76335575688                               0                                           0                                  240023                        20001                       11                    0.114672017141      -0.0024062321953600002  0.97606947140699996        2.50000002469e-16                2.4e-10                   
                       6.2760728750899999e-20                            520039                                       1162.4260465299999                   -1.51188027692e-11                   -3.77965586405e-27                        -4.1797571775599997e-20                          2.8229018405200001e-21                              4.8768292503700001                                      6.3686449381100001                                        28.614727820599999                        -3.3553291846599999e-22            1.01954664305e-19                       1.16267298947e-22                             1.76335575688                             -1.76335575688                               0                                           0                                  260025                        20001                       12                    0.152627888633      -0.117016094906       0.96753638369399997        2.50000002469e-16                2.5999999999999998e-10       
                       6.2340364850900001e-20                            560042                                       1849.6724732800001                   -1.22533273211e-11                   -3.0634250372099999e-27                      -3.6850291600700003e-20                          8.2608933921600001e-21                              8.8625973408800007                                      8.8625973408800007                                        28.614727820599999                        -3.5662930455e-22               9.1682020491100005e-20                    -3.9562812700699999e-22                           2.85316954889                              2.85316954889                               0                                           0                                  280027                        20001                       13                    0.320978418514      -0.31468803949599999  0.85301600927599996        2.50000002469e-16                2.8000000000000002e-10       
                       6.3041268674099994e-20                            600045                                       4551.7108123899998                    8.1232948500399999e-11                  2.03081837864e-26                        -1.94091886108e-20                            3.9690908126100002e-20                              28.058333527799999                                      28.058333527799999                                        28.614727820599999                        -6.3094090083800001e-21            4.9068958167200001e-20                    -4.03412352941e-36                             1.39646873941e-14                          1.39646873941e-14                           0                                           0                                  300029                        20001                       14                    0.66870447201100003 -0.32730348694        0.44928677339799999        2.50000002469e-16                3e-10                     
                       6.3899409757100004e-20                            640048                                       3591.2655759499999                   -2.3376708703200001e-11                 -5.8439786005499999e-27                      -1.3895042504700001e-20                          5.6840551625100003e-20                              19.996850894600001                                      33.219678989899997                                        33.219678989899997                        -3.3354358312900001e-20            5.3554330140400003e-20                     7.5392880913599998e-22                           2.85316954889                             -2.85316954889                               0                                           0                                  320031                        20001                       15                    0.61167257914499995  0.109684496144       0.32164450242300002        2.50000002469e-16                3.1999999999999998e-10       
                       6.2819560173200001e-20                            680051                                       2727.20460916                        -5.0643774117700001e-11                 -1.2661052922500001e-26                      -2.32109438046e-20                            4.5410986454099998e-20                              22.470302524699999                                      22.470302524699999                                        33.219678989899997                        -2.3433355043599999e-20            6.44413642247e-20                      -3.884916574e-22                               1.76335575688                              1.76335575688                               0                                           0                                  340033                        20001                       16                    0.50998571358900002  0.220491800801       0.53729036584699996        2.50000002469e-16                3.4000000000000001e-10       
                       6.2781033006700003e-20                            720054                                       3278.4140205899998                    4.0668226485500003e-11                  1.01669988096e-26                        -3.5017354029200003e-20                          1.53248589922e-20                                17.4183556465                                           26.305637171400001                                        33.219678989899997                         4.62253428087e-22              8.2326756637799996e-20                    -3.1548202218800002e-22                           1.76335575688                              1.76335575688                               0                                           0                                  360035                        20001                       17                    0.414143575918       0.234109106392       0.81058689882400004        2.50000002469e-16                3.6e-10                   
                       6.3455664431199996e-20                            760057                                       1857.95418025                         9.8130576902699993e-12                  2.4533616492300001e-27                      -3.9351187024600002e-20                          1.1249711007e-20                                 12.8999421114                                           17.4183556465                                             33.219678989899997                         1.6387072602800001e-22            9.1069990391099994e-20                     3.2327933167399998e-22                           2.85316954889                             -2.85316954889                               0                                           0                                  380037                        20001                       18                    0.26228086815700002  0.093697667935000006  0.91090710705099998        2.50000002469e-16                3.7999999999999998e-10       
                       6.3203309050500002e-20                            800060                                       1908.2732221599999                   -2.5281898104700001e-11                 -6.32046530728e-27                        -3.9825290840200001e-20                          1.07979782756e-20                                9.9857663646300008                                      12.942085796400001                                        33.219678989899997                        -1.10366021262e-21              9.3334281827699996e-20                     4.1933554998199999e-36                           4.70412926225e-14                         -4.70412926225e-14                           0                                           0                                  400039                        20001                       19                    0.20634725139599999 -0.072218930912900006  0.921881732412             2.50000002469e-16                4.0000000000000001e-10       
                       6.2919351975900003e-20                            840063                                       2520.82497053                         1.29792375225e-11                    3.2446755101999997e-27                      -3.5370020692199999e-20                          1.18395418531e-20                                10.4549595671                                           10.4549595671                                             33.219678989899997                        -1.6871176626499999e-21            8.8567752219200004e-20                    -4.3080374160699999e-22                           2.85316954889                              2.85316954889                               0                                           0                                  420041                        20001                       20                    0.34951686756200001 -0.30993765713299998  0.81875047898499997        2.50000002469e-16                4.2e-10                   
                       6.4000597690200001e-20                            880066                                       5564.77976003                         7.1410234363600003e-11                  1.7852663863399999e-26                      -1.7366728529600001e-20                          4.4670986709499998e-20                              30.0961767796                                           30.0961767796                                             33.219678989899997                        -3.7865051437499998e-21            3.99280734959e-20                       5.5477115809499996e-22                           1.76335575688                             -1.76335575688                               0                                           0                                  440043                        20001                       21                    0.72826625630300001 -0.287047317942       0.40200760485199999        2.50000002469e-16                4.3999999999999998e-10       
                       6.4053037060599996e-20                            920069                                       3844.6199639900001                   -5.8582274901799994e-11                 -1.4645488487500001e-26                      -1.68615491893e-20                            5.2507634708699999e-20                              19.273530018300001                                      34.876804090900002                                        34.876804090900002                        -2.79368677823e-20              5.5894844613799998e-20                     4.4897470972899997e-22                           1.76335575688                             -1.76335575688                               0                                           0                                  460045                        20001                       22                    0.58938379592599999  0.189136530952       0.39031363864099999        2.50000002469e-16                4.6000000000000001e-10       
                       6.3038734233699994e-20                            960072                                       2788.7354123199998                   -1.8358407627799999e-11                 -4.5897611117800003e-27                      -2.5271205558099999e-20                          4.6080211937100002e-20                              22.389222971599999                                      22.389222971599999                                        34.876804090900002                        -2.2803103633899999e-20            6.5623213356399995e-20                    -5.9038186775899995e-22                           2.85316954889                              2.85316954889                               0                                           0                                  480047                        20001                       23                    0.47898474677800001  0.13259579851100001  0.58498161014200001        2.50000002469e-16                4.8e-10                   
                       6.3663010130099998e-20                            1000075                                      3599.06580945                         5.9617157887000004e-11                  1.4904313034700001e-26                      -3.3447981681900003e-20                          1.9955747045400001e-20                              19.237027161099999                                      27.415894319                                              34.876804090900002                         1.9866904602499999e-21            7.5168554306400001e-20                    -7.9515930639899996e-36                           3.7485333705400003e-14                        3.7485333705400003e-14                         0                                           0                                  500049                        20001                       24                    0.49103112088        0.167087743388       0.77425883522899996        2.50000002469e-16                5.0000000000000003e-10       
                       6.4213005045300004e-20                            1040078                                      2523.5388640000001                   -1.23019603016e-11                   -3.0753891685599999e-27                      -3.6231626715599998e-20                          2.2393557920900001e-20                              16.5622464319                                           19.237027161099999                                        34.876804090900002                        -1.9348496901199999e-21            7.958853424e-20                         3.9738929020799999e-22                           2.85316954889                             -2.85316954889                               0                                           0                                  520051                        20001                       25                    0.32240727389700002  0.071999556586999996  0.83869506286100004        2.50000002469e-16                5.1999999999999996e-10       
                       6.3643254452600005e-20                            1080081                                      2798.2778692100001                   -2.9499827510000002e-11                 -7.3750034189699994e-27                      -3.7410670486900002e-20                          1.44560324629e-20                                9.9144970820299996                                      16.5622464319                                             34.876804090900002                        -3.4768783487499998e-21            9.0300482635400003e-20                    -2.2571180998900002e-22                           1.76335575688                              1.76335575688                               0                                           0                                  540053                        20001                       26                    0.296299280281      -0.15005650790200001  0.86598774275199997        2.50000002469e-16                5.4e-10                   
                       6.3728647579600005e-20                            1120084                                      3919.2168466399999                    5.4800148966100002e-11                  1.3699852760899999e-26                      -2.5114027356699999e-20                          2.8646213683199999e-20                              17.7512769316                                           17.7512769316                                             34.876804090900002                        -1.7242667462200002e-21            6.2346318846899995e-20                    -4.2559084751199999e-22                           1.76335575688                              1.76335575688                               0                                           0                                  560055                        20001                       27                    0.558687034666      -0.36369141132900001  0.581343225849             2.50000002469e-16                5.6000000000000003e-10       